 Gaussian 09, Revision A.02,
 Gaussian 09:  AM64L-G09RevA.02 11-Jun-2009

 ---------------------------------------------------------
 #p hf/6-31g(d) iop(6/33=2) pop=mk sp test scf=(xqc,tight)
 ---------------------------------------------------------

 ayer oniom calculation. H(igh) layer is extracted. There are 5 capping
  atoms.
 ----------------------------------------------------------------------
 Symbolic Z-matrix:
 Charge =  1 Multiplicity = 1

                         Standard orientation:
 ---------------------------------------------------------------------
 Center     Atomic      Atomic             Coordinates (Angstroms)
 Number     Number       Type             X           Y           Z
 ---------------------------------------------------------------------
      1          6           0       -0.801065    2.467963    3.076224
      2          7           0        0.197129    1.928710    3.891401
      3          1           0        0.395105    2.153673    4.844076
      4          6           0        0.923552    1.002505    3.164875
      5          1           0        1.771013    0.413221    3.535831
      6          7           0        0.359788    0.928619    1.916215
      7          6           0       -0.696716    1.836672    1.840375
      8          1           0       -1.404427    1.931464    0.947102
      9          6           0       -4.058423    3.641857   -0.846998
     10          1           0       -4.422656    3.730808    0.185321
     11          1           0       -4.941028    3.502846   -1.482926
     12          6           0       -3.123992    2.454266   -0.988386
     13          8           0       -2.868996    1.718221    0.030546
     14          8           0       -2.559249    2.166107   -2.073278
     15          6           0        2.290609    3.470546   -1.893751
     16          7           0        3.360311    2.599087   -2.111181
     17          1           0        4.137934    2.667190   -2.730925
     18          6           0        3.158422    1.446016   -1.377154
     19          1           0        3.812989    0.568734   -1.363385
     20          7           0        1.989970    1.600306   -0.681109
     21          6           0        1.438775    2.841577   -0.993583
     22          1           0        0.481595    3.186590   -0.584489
     23          6           0        4.730516   -1.780081    1.384041
     24          7           0        4.266539   -2.738855    0.475694
     25          1           0        4.748997   -3.516799    0.082185
     26          6           0        2.982309   -2.401607    0.076626
     27          1           0        2.362491   -2.947957   -0.657394
     28          7           0        2.616958   -1.280369    0.769562
     29          6           0        3.687588   -0.882381    1.566870
     30          1           0        3.624185    0.005310    2.200938
     31         30           0        1.186061    0.046844    0.294354
     32          6           0       -1.496260   -0.481909   -2.251866
     33          1           0       -1.809754    0.611725   -2.104150
     34          1           0       -1.406832   -0.683308   -3.325423
     35         16           0       -0.195353   -1.261347   -1.197559
     36          6           0       -2.118729   -1.514035   -1.384149
     37          1           0       -2.240115   -2.537831   -1.799702
     38          6           0       -3.177621   -1.114235   -0.437751
     39          1           0       -2.989865   -0.029675   -0.069279
     40          1           0       -4.058415   -0.904969   -1.093696
     41         16           0       -3.692972   -2.344219    0.796374
     42          8           0       -2.540151   -3.185984    1.189047
     43          8           0       -4.855301   -3.052116    0.232116
     44          8           0        2.023754   -2.997585   -3.373679
     45          1           0        1.390772   -2.476101   -2.873669
     46          1           0        2.886276   -2.638390   -3.103463
     47          1           0       -1.524696    3.233169    3.388918
     48          1           0       -3.608146    4.621817   -1.134496
     49          1           0        2.160271    4.423412   -2.411063
     50          1           0        5.725693   -1.753524    1.844935
     51          1           0       -4.029126   -1.652219    1.818766
 ---------------------------------------------------------------------

 SCF Done:  E(RHF) =  -3816.74388606     A.U. after   15 cycles

 The electronic state is 1-A.
 Alpha  occ. eigenvalues -- -353.44365 -92.25660 -92.06174 -44.52146 -39.08984
 Alpha  occ. eigenvalues --  -39.08909 -39.08877 -20.66152 -20.62006 -20.61551
 Alpha  occ. eigenvalues --  -20.54819 -20.54481 -15.80511 -15.78779 -15.76899
 Alpha  occ. eigenvalues --  -15.75977 -15.74353 -15.72391 -11.49750 -11.48121
 Alpha  occ. eigenvalues --  -11.46250 -11.44147 -11.42929 -11.42276 -11.41654
 Alpha  occ. eigenvalues --  -11.40535 -11.39220 -11.38996 -11.37047 -11.36724
 Alpha  occ. eigenvalues --  -11.35220 -11.27611  -9.23561  -9.07432  -6.92118
 Alpha  occ. eigenvalues --   -6.92054  -6.92020  -6.75770  -6.75536  -6.75440
 Alpha  occ. eigenvalues --   -5.78614  -3.99405  -3.99294  -3.99205  -1.50188
 Alpha  occ. eigenvalues --   -1.50031  -1.48306  -1.45992  -1.43774  -1.42492
 Alpha  occ. eigenvalues --   -1.38550  -1.34012  -1.32170  -1.30545  -1.29879
 Alpha  occ. eigenvalues --   -1.25289  -1.17606  -1.15677  -1.12945  -1.12256
 Alpha  occ. eigenvalues --   -1.03065  -1.01073  -1.00557  -0.99096  -0.97403
 Alpha  occ. eigenvalues --   -0.96734  -0.95639  -0.95279  -0.93186  -0.92771
 Alpha  occ. eigenvalues --   -0.92034  -0.91530  -0.91420  -0.90808  -0.90407
 Alpha  occ. eigenvalues --   -0.89756  -0.88746  -0.88121  -0.80623  -0.80047
 Alpha  occ. eigenvalues --   -0.78712  -0.77515  -0.77152  -0.76514  -0.75880
 Alpha  occ. eigenvalues --   -0.75476  -0.75097  -0.74745  -0.74154  -0.73998
 Alpha  occ. eigenvalues --   -0.73230  -0.72770  -0.72122  -0.71988  -0.71857
 Alpha  occ. eigenvalues --   -0.70455  -0.69531  -0.68215  -0.66864  -0.66797
 Alpha  occ. eigenvalues --   -0.66173  -0.64089  -0.63731  -0.63021  -0.61602
 Alpha  occ. eigenvalues --   -0.60876  -0.59530  -0.58297  -0.58118  -0.57400
 Alpha  occ. eigenvalues --   -0.56665  -0.55595  -0.55314  -0.55019  -0.54172
 Alpha  occ. eigenvalues --   -0.52291  -0.51678  -0.51248  -0.49547  -0.48759
 Alpha  occ. eigenvalues --   -0.46402  -0.45821  -0.44201  -0.44066  -0.43656
 Alpha virt. eigenvalues --   -0.01407  -0.00132   0.00793   0.02187   0.03518
 Alpha virt. eigenvalues --    0.03734   0.05615   0.06780   0.07077   0.07289
 Alpha virt. eigenvalues --    0.08426   0.08931   0.09291   0.10128   0.11291

 Mulliken atomic charges:
              1
     1  C   -0.022152
     2  N   -0.710115
     3  H    0.433520
     4  C    0.315728
     5  H    0.255986
     6  N   -0.769926
     7  C   -0.050742
     8  H    0.381819
     9  C   -0.579580
    10  H    0.179384
    11  H    0.197678
    12  C    0.774495
    13  O   -0.806821
    14  O   -0.724388
    15  C    0.012900
    16  N   -0.710449
    17  H    0.438888
    18  C    0.322278
    19  H    0.262197
    20  N   -0.761038
    21  C    0.017526
    22  H    0.285655
    23  C    0.023717
    24  N   -0.718423
    25  H    0.448411
    26  C    0.312818
    27  H    0.314941
    28  N   -0.760656
    29  C   -0.018722
    30  H    0.245955
    31  Zn   1.296291
    32  C   -0.478187
    33  H    0.402856
    34  H    0.245813
    35  S   -0.237749
    36  C   -0.171240
    37  H    0.288477
    38  C   -0.697268
    39  H    0.381828
    40  H    0.278173
    41  S    1.354458
    42  O   -0.698636
    43  O   -0.670254
    44  O   -0.876405
    45  H    0.472646
    46  H    0.413171
    47  H    0.274587
    48  H    0.180628
    49  H    0.286466
    50  H    0.288784
    51  H    0.074675
 Sum of Mulliken atomic charges =   1.00000

 Dipole moment (field-independent basis, Debye):
    X=             21.1092    Y=              6.0609    Z=              5.5653  Tot=             22.6563
 Quadrupole moment (field-independent basis, Debye-Ang):
   XX=           -113.2432   YY=           -171.5621   ZZ=           -145.3925
   XY=            -21.9998   XZ=             -7.7352   YZ=              4.6396

 Normal termination of Gaussian 09 at Sun Nov  8 12:09:50 2009.
